<?xml version="1.0" encoding="UTF-8"?>

<!-- generated on 2022-11-29 10:19:13 by Eclipse SUMO GUI Version 1.12.0
<configuration xmlns:xsi="http://www.w3.org/2001/XMLSchema-instance" xsi:noNamespaceSchemaLocation="http://sumo.dlr.de/xsd/sumoConfiguration.xsd">

    <input>
        <net-file value="teszt_sacramento.net.xml"/>
        <additional-files value="detector_poi.xml,routes.rou.xml,vehicles.rou.xml"/>
    </input>

    <output>
        <tripinfo-output value="tripinfoWithDistributedControl4States91.xml"/>
        <collision-output value="collisionOut4States91.xml"/>
    </output>

    <processing>
        <ignore-route-errors value="true"/>
        <collision.mingap-factor value="0"/>
    </processing>

    <routing>
        <device.rerouting.adaptation-steps value="18"/>
        <device.rerouting.adaptation-interval value="10"/>
    </routing>

    <report>
        <verbose value="true"/>
        <duration-log.statistics value="true"/>
        <no-step-log value="true"/>
    </report>

    <traci_server>
        <remote-port value="63917"/>
    </traci_server>

    <gui_only>
        <gui-settings-file value="osm.view.xml"/>
        <start value="true"/>
    </gui_only>

</configuration>
-->

<tripinfos xmlns:xsi="http://www.w3.org/2001/XMLSchema-instance" xsi:noNamespaceSchemaLocation="http://sumo.dlr.de/xsd/tripinfo_file.xsd">
    <tripinfo id="316827.0" depart="0.00" departLane="972495037_0" departPos="531.07" departSpeed="29.06" departDelay="0.00" arrival="74.00" arrivalLane="-10518543#3_0" arrivalPos="45.72" arrivalSpeed="37.57" duration="74.00" routeLength="3443.86" waitingTime="0.00" waitingCount="0" stopTime="0.00" timeLoss="9.94" rerouteNo="0" devices="tripinfo_316827.0" vType="DEFAULT_VEHTYPE@316827.0" speedFactor="1.94" vaporized=""/>
    <tripinfo id="316827.1" depart="1.00" departLane="972495037_0" departPos="531.07" departSpeed="29.06" departDelay="0.57" arrival="78.00" arrivalLane="-10518543#3_0" arrivalPos="45.72" arrivalSpeed="36.78" duration="77.00" routeLength="3443.86" waitingTime="0.00" waitingCount="0" stopTime="0.00" timeLoss="10.14" rerouteNo="0" devices="tripinfo_316827.1" vType="DEFAULT_VEHTYPE@316827.1" speedFactor="1.83" vaporized=""/>
    <tripinfo id="316827.2" depart="2.00" departLane="972495037_0" departPos="531.07" departSpeed="29.06" departDelay="1.14" arrival="80.00" arrivalLane="-10518543#3_0" arrivalPos="45.72" arrivalSpeed="37.19" duration="78.00" routeLength="3443.86" waitingTime="0.00" waitingCount="0" stopTime="0.00" timeLoss="13.03" rerouteNo="0" devices="tripinfo_316827.2" vType="DEFAULT_VEHTYPE@316827.2" speedFactor="1.89" vaporized=""/>
    <tripinfo id="316827.3" depart="3.00" departLane="972495037_0" departPos="531.07" departSpeed="29.06" departDelay="1.71" arrival="82.00" arrivalLane="-10518543#3_0" arrivalPos="45.72" arrivalSpeed="37.57" duration="79.00" routeLength="3443.86" waitingTime="0.00" waitingCount="0" stopTime="0.00" timeLoss="14.91" rerouteNo="0" devices="tripinfo_316827.3" vType="DEFAULT_VEHTYPE@316827.3" speedFactor="1.94" vaporized=""/>
    <tripinfo id="316827.4" depart="4.00" departLane="972495037_0" departPos="531.07" departSpeed="29.06" departDelay="2.29" arrival="84.00" arrivalLane="-10518543#3_0" arrivalPos="45.72" arrivalSpeed="36.97" duration="80.00" routeLength="3443.86" waitingTime="0.00" waitingCount="0" stopTime="0.00" timeLoss="14.10" rerouteNo="0" devices="tripinfo_316827.4" vType="DEFAULT_VEHTYPE@316827.4" speedFactor="1.86" vaporized=""/>
    <tripinfo id="316827.5" depart="5.00" departLane="972495037_0" departPos="531.07" departSpeed="29.06" departDelay="2.86" arrival="86.00" arrivalLane="-10518543#3_0" arrivalPos="45.72" arrivalSpeed="37.96" duration="81.00" routeLength="3443.86" waitingTime="0.00" waitingCount="0" stopTime="0.00" timeLoss="17.07" rerouteNo="0" devices="tripinfo_316827.5" vType="DEFAULT_VEHTYPE@316827.5" speedFactor="1.99" vaporized=""/>
    <tripinfo id="316827.7" depart="7.00" departLane="972495037_0" departPos="531.07" departSpeed="29.06" departDelay="4.00" arrival="88.00" arrivalLane="-10518543#3_0" arrivalPos="45.72" arrivalSpeed="37.13" duration="81.00" routeLength="3443.86" waitingTime="0.00" waitingCount="0" stopTime="0.00" timeLoss="15.86" rerouteNo="0" devices="tripinfo_316827.7" vType="DEFAULT_VEHTYPE@316827.7" speedFactor="1.88" vaporized=""/>
    <tripinfo id="316827.8" depart="8.00" departLane="972495037_0" departPos="531.07" departSpeed="29.06" departDelay="4.57" arrival="90.00" arrivalLane="-10518543#3_0" arrivalPos="45.72" arrivalSpeed="37.59" duration="82.00" routeLength="3443.86" waitingTime="0.00" waitingCount="0" stopTime="0.00" timeLoss="18.74" rerouteNo="0" devices="tripinfo_316827.8" vType="DEFAULT_VEHTYPE@316827.8" speedFactor="1.94" vaporized=""/>
    <tripinfo id="316827.10" depart="10.00" departLane="972495037_0" departPos="531.07" departSpeed="29.06" departDelay="5.71" arrival="92.00" arrivalLane="-10518543#3_0" arrivalPos="45.72" arrivalSpeed="37.84" duration="82.00" routeLength="3443.86" waitingTime="0.00" waitingCount="0" stopTime="0.00" timeLoss="18.80" rerouteNo="0" devices="tripinfo_316827.10" vType="DEFAULT_VEHTYPE@316827.10" speedFactor="1.98" vaporized=""/>
    <tripinfo id="316827.11" depart="11.00" departLane="972495037_0" departPos="531.07" departSpeed="29.06" departDelay="6.29" arrival="94.00" arrivalLane="-10518543#3_0" arrivalPos="45.72" arrivalSpeed="37.21" duration="83.00" routeLength="3443.86" waitingTime="0.00" waitingCount="0" stopTime="0.00" timeLoss="19.02" rerouteNo="0" devices="tripinfo_316827.11" vType="DEFAULT_VEHTYPE@316827.11" speedFactor="1.89" vaporized=""/>
    <tripinfo id="316827.12" depart="12.00" departLane="972495037_0" departPos="531.07" departSpeed="29.06" departDelay="6.86" arrival="97.00" arrivalLane="-10518543#3_0" arrivalPos="45.72" arrivalSpeed="36.75" duration="85.00" routeLength="3443.86" waitingTime="0.00" waitingCount="0" stopTime="0.00" timeLoss="17.93" rerouteNo="0" devices="tripinfo_316827.12" vType="DEFAULT_VEHTYPE@316827.12" speedFactor="1.83" vaporized=""/>
    <tripinfo id="316827.14" depart="14.00" departLane="972495037_0" departPos="531.07" departSpeed="29.06" departDelay="8.00" arrival="99.00" arrivalLane="-10518543#3_0" arrivalPos="45.72" arrivalSpeed="37.41" duration="85.00" routeLength="3443.86" waitingTime="0.00" waitingCount="0" stopTime="0.00" timeLoss="20.86" rerouteNo="0" devices="tripinfo_316827.14" vType="DEFAULT_VEHTYPE@316827.14" speedFactor="1.92" vaporized=""/>
    <tripinfo id="316827.15" depart="15.00" departLane="972495037_0" departPos="531.07" departSpeed="29.06" departDelay="8.57" arrival="101.00" arrivalLane="-10518543#3_0" arrivalPos="45.72" arrivalSpeed="37.65" duration="86.00" routeLength="3443.86" waitingTime="0.00" waitingCount="0" stopTime="0.00" timeLoss="21.90" rerouteNo="0" devices="tripinfo_316827.15" vType="DEFAULT_VEHTYPE@316827.15" speedFactor="1.95" vaporized=""/>
    <tripinfo id="316827.17" depart="17.00" departLane="972495037_0" departPos="531.07" departSpeed="29.06" departDelay="9.71" arrival="102.00" arrivalLane="-10518543#3_0" arrivalPos="45.72" arrivalSpeed="35.38" duration="85.00" routeLength="3443.86" waitingTime="0.00" waitingCount="0" stopTime="0.00" timeLoss="21.75" rerouteNo="0" devices="tripinfo_316827.17" vType="DEFAULT_VEHTYPE@316827.17" speedFactor="1.99" vaporized=""/>
    <tripinfo id="316827.18" depart="18.00" departLane="972495037_0" departPos="531.07" departSpeed="29.06" departDelay="10.29" arrival="105.00" arrivalLane="-10518543#3_0" arrivalPos="45.72" arrivalSpeed="37.82" duration="87.00" routeLength="3443.86" waitingTime="0.00" waitingCount="0" stopTime="0.00" timeLoss="22.94" rerouteNo="0" devices="tripinfo_316827.18" vType="DEFAULT_VEHTYPE@316827.18" speedFactor="1.97" vaporized=""/>
    <tripinfo id="316827.19" depart="19.00" departLane="972495037_0" departPos="531.07" departSpeed="29.06" departDelay="10.86" arrival="107.00" arrivalLane="-10518543#3_0" arrivalPos="45.72" arrivalSpeed="37.29" duration="88.00" routeLength="3443.86" waitingTime="0.00" waitingCount="0" stopTime="0.00" timeLoss="23.52" rerouteNo="0" devices="tripinfo_316827.19" vType="DEFAULT_VEHTYPE@316827.19" speedFactor="1.90" vaporized=""/>
    <tripinfo id="316827.21" depart="21.00" departLane="972495037_0" departPos="531.07" departSpeed="29.06" departDelay="12.00" arrival="109.00" arrivalLane="-10518543#3_0" arrivalPos="45.72" arrivalSpeed="38.00" duration="88.00" routeLength="3443.86" waitingTime="0.00" waitingCount="0" stopTime="0.00" timeLoss="24.05" rerouteNo="0" devices="tripinfo_316827.21" vType="DEFAULT_VEHTYPE@316827.21" speedFactor="2.00" vaporized=""/>
    <tripinfo id="316827.22" depart="22.00" departLane="972495037_0" departPos="531.07" departSpeed="29.06" departDelay="12.57" arrival="111.00" arrivalLane="-10518543#3_0" arrivalPos="45.72" arrivalSpeed="37.29" duration="89.00" routeLength="3443.86" waitingTime="0.00" waitingCount="0" stopTime="0.00" timeLoss="24.56" rerouteNo="0" devices="tripinfo_316827.22" vType="DEFAULT_VEHTYPE@316827.22" speedFactor="1.90" vaporized=""/>
    <tripinfo id="316827.23" depart="23.00" departLane="972495037_0" departPos="531.07" departSpeed="29.06" departDelay="13.14" arrival="113.00" arrivalLane="-10518543#3_0" arrivalPos="45.72" arrivalSpeed="37.12" duration="90.00" routeLength="3443.86" waitingTime="0.00" waitingCount="0" stopTime="0.00" timeLoss="24.82" rerouteNo="0" devices="tripinfo_316827.23" vType="DEFAULT_VEHTYPE@316827.23" speedFactor="1.88" vaporized=""/>
    <tripinfo id="316827.25" depart="25.00" departLane="972495037_0" departPos="531.07" departSpeed="29.06" departDelay="14.29" arrival="115.00" arrivalLane="-10518543#3_0" arrivalPos="45.72" arrivalSpeed="36.96" duration="90.00" routeLength="3443.86" waitingTime="0.00" waitingCount="0" stopTime="0.00" timeLoss="24.86" rerouteNo="0" devices="tripinfo_316827.25" vType="DEFAULT_VEHTYPE@316827.25" speedFactor="1.85" vaporized=""/>
    <tripinfo id="316827.26" depart="26.00" departLane="972495037_0" departPos="531.07" departSpeed="29.06" departDelay="14.86" arrival="117.00" arrivalLane="-10518543#3_0" arrivalPos="45.72" arrivalSpeed="37.99" duration="91.00" routeLength="3443.86" waitingTime="0.00" waitingCount="0" stopTime="0.00" timeLoss="27.84" rerouteNo="0" devices="tripinfo_316827.26" vType="DEFAULT_VEHTYPE@316827.26" speedFactor="2.00" vaporized=""/>
    <tripinfo id="316827.28" depart="28.00" departLane="972495037_0" departPos="531.07" departSpeed="29.06" departDelay="16.00" arrival="145.00" arrivalLane="-10518543#3_0" arrivalPos="45.72" arrivalSpeed="33.80" duration="117.00" routeLength="3443.86" waitingTime="21.00" waitingCount="1" stopTime="0.00" timeLoss="53.91" rerouteNo="0" devices="tripinfo_316827.28" vType="DEFAULT_VEHTYPE@316827.28" speedFactor="1.97" vaporized=""/>
    <tripinfo id="316827.29" depart="29.00" departLane="972495037_0" departPos="531.07" departSpeed="29.06" departDelay="16.57" arrival="147.00" arrivalLane="-10518543#3_0" arrivalPos="45.72" arrivalSpeed="36.40" duration="118.00" routeLength="3443.86" waitingTime="21.00" waitingCount="1" stopTime="0.00" timeLoss="54.39" rerouteNo="0" devices="tripinfo_316827.29" vType="DEFAULT_VEHTYPE@316827.29" speedFactor="1.99" vaporized=""/>
    <tripinfo id="316827.30" depart="30.00" departLane="972495037_0" departPos="531.07" departSpeed="29.06" departDelay="17.14" arrival="149.00" arrivalLane="-10518543#3_0" arrivalPos="45.72" arrivalSpeed="37.56" duration="119.00" routeLength="3443.86" waitingTime="21.00" waitingCount="1" stopTime="0.00" timeLoss="54.90" rerouteNo="0" devices="tripinfo_316827.30" vType="DEFAULT_VEHTYPE@316827.30" speedFactor="1.94" vaporized=""/>
    <tripinfo id="316827.32" depart="32.00" departLane="972495037_0" departPos="531.07" departSpeed="29.06" departDelay="18.29" arrival="151.00" arrivalLane="-10518543#3_0" arrivalPos="45.72" arrivalSpeed="37.34" duration="119.00" routeLength="3443.86" waitingTime="21.00" waitingCount="1" stopTime="0.00" timeLoss="54.66" rerouteNo="0" devices="tripinfo_316827.32" vType="DEFAULT_VEHTYPE@316827.32" speedFactor="1.91" vaporized=""/>
    <tripinfo id="316827.33" depart="33.00" departLane="972495037_0" departPos="531.07" departSpeed="29.06" departDelay="18.86" arrival="153.00" arrivalLane="-10518543#3_0" arrivalPos="45.72" arrivalSpeed="37.40" duration="120.00" routeLength="3443.86" waitingTime="21.00" waitingCount="1" stopTime="0.00" timeLoss="55.85" rerouteNo="0" devices="tripinfo_316827.33" vType="DEFAULT_VEHTYPE@316827.33" speedFactor="1.91" vaporized=""/>
    <tripinfo id="316827.34" depart="34.00" departLane="972495037_0" departPos="531.07" departSpeed="29.06" departDelay="19.43" arrival="155.00" arrivalLane="-10518543#3_0" arrivalPos="45.72" arrivalSpeed="37.82" duration="121.00" routeLength="3443.86" waitingTime="21.00" waitingCount="1" stopTime="0.00" timeLoss="56.96" rerouteNo="0" devices="tripinfo_316827.34" vType="DEFAULT_VEHTYPE@316827.34" speedFactor="1.97" vaporized=""/>
    <tripinfo id="316827.36" depart="36.00" departLane="972495037_0" departPos="531.07" departSpeed="29.06" departDelay="20.57" arrival="157.00" arrivalLane="-10518543#3_0" arrivalPos="45.72" arrivalSpeed="37.69" duration="121.00" routeLength="3443.86" waitingTime="21.00" waitingCount="1" stopTime="0.00" timeLoss="56.93" rerouteNo="0" devices="tripinfo_316827.36" vType="DEFAULT_VEHTYPE@316827.36" speedFactor="1.96" vaporized=""/>
    <tripinfo id="316827.37" depart="37.00" departLane="972495037_0" departPos="531.07" departSpeed="29.06" departDelay="21.14" arrival="159.00" arrivalLane="-10518543#3_0" arrivalPos="45.72" arrivalSpeed="37.91" duration="122.00" routeLength="3443.86" waitingTime="21.00" waitingCount="1" stopTime="0.00" timeLoss="58.00" rerouteNo="0" devices="tripinfo_316827.37" vType="DEFAULT_VEHTYPE@316827.37" speedFactor="1.98" vaporized=""/>
    <tripinfo id="316827.39" depart="39.00" departLane="972495037_0" departPos="531.07" departSpeed="29.06" departDelay="22.29" arrival="161.00" arrivalLane="-10518543#3_0" arrivalPos="45.72" arrivalSpeed="38.01" duration="122.00" routeLength="3443.86" waitingTime="21.00" waitingCount="1" stopTime="0.00" timeLoss="58.02" rerouteNo="0" devices="tripinfo_316827.39" vType="DEFAULT_VEHTYPE@316827.39" speedFactor="2.00" vaporized=""/>
    <tripinfo id="316827.40" depart="40.00" departLane="972495037_0" departPos="531.07" departSpeed="29.06" departDelay="22.86" arrival="163.00" arrivalLane="-10518543#3_0" arrivalPos="45.72" arrivalSpeed="37.78" duration="123.00" routeLength="3443.86" waitingTime="21.00" waitingCount="1" stopTime="0.00" timeLoss="58.98" rerouteNo="0" devices="tripinfo_316827.40" vType="DEFAULT_VEHTYPE@316827.40" speedFactor="1.97" vaporized=""/>
    <tripinfo id="316827.41" depart="41.00" departLane="972495037_0" departPos="531.07" departSpeed="29.06" departDelay="23.43" arrival="165.00" arrivalLane="-10518543#3_0" arrivalPos="45.72" arrivalSpeed="37.84" duration="124.00" routeLength="3443.86" waitingTime="21.00" waitingCount="1" stopTime="0.00" timeLoss="60.01" rerouteNo="0" devices="tripinfo_316827.41" vType="DEFAULT_VEHTYPE@316827.41" speedFactor="1.98" vaporized=""/>
    <tripinfo id="316827.43" depart="43.00" departLane="972495037_0" departPos="531.07" departSpeed="29.06" departDelay="24.57" arrival="167.00" arrivalLane="-10518543#3_0" arrivalPos="45.72" arrivalSpeed="36.80" duration="124.00" routeLength="3443.86" waitingTime="21.00" waitingCount="1" stopTime="0.00" timeLoss="57.37" rerouteNo="0" devices="tripinfo_316827.43" vType="DEFAULT_VEHTYPE@316827.43" speedFactor="1.83" vaporized=""/>
    <tripinfo id="316827.44" depart="44.00" departLane="972495037_0" departPos="531.07" departSpeed="29.06" departDelay="25.14" arrival="169.00" arrivalLane="-10518543#3_0" arrivalPos="45.72" arrivalSpeed="37.45" duration="125.00" routeLength="3443.86" waitingTime="21.00" waitingCount="1" stopTime="0.00" timeLoss="61.73" rerouteNo="0" devices="tripinfo_316827.44" vType="DEFAULT_VEHTYPE@316827.44" speedFactor="1.92" vaporized=""/>
    <tripinfo id="316827.45" depart="45.00" departLane="972495037_0" departPos="531.07" departSpeed="29.06" departDelay="25.71" arrival="171.00" arrivalLane="-10518543#3_0" arrivalPos="45.72" arrivalSpeed="34.74" duration="126.00" routeLength="3443.86" waitingTime="21.00" waitingCount="1" stopTime="0.00" timeLoss="62.37" rerouteNo="0" devices="tripinfo_316827.45" vType="DEFAULT_VEHTYPE@316827.45" speedFactor="1.91" vaporized=""/>
    <tripinfo id="316827.47" depart="47.00" departLane="972495037_0" departPos="531.07" departSpeed="29.06" departDelay="26.86" arrival="173.00" arrivalLane="-10518543#3_0" arrivalPos="45.72" arrivalSpeed="35.19" duration="126.00" routeLength="3443.86" waitingTime="21.00" waitingCount="1" stopTime="0.00" timeLoss="62.64" rerouteNo="0" devices="tripinfo_316827.47" vType="DEFAULT_VEHTYPE@316827.47" speedFactor="1.97" vaporized=""/>
    <tripinfo id="316827.48" depart="48.00" departLane="972495037_0" departPos="531.07" departSpeed="29.06" departDelay="27.43" arrival="175.00" arrivalLane="-10518543#3_0" arrivalPos="45.72" arrivalSpeed="35.07" duration="127.00" routeLength="3443.86" waitingTime="21.00" waitingCount="1" stopTime="0.00" timeLoss="63.61" rerouteNo="0" devices="tripinfo_316827.48" vType="DEFAULT_VEHTYPE@316827.48" speedFactor="1.95" vaporized=""/>
    <tripinfo id="316827.50" depart="50.00" departLane="972495037_0" departPos="531.07" departSpeed="29.06" departDelay="28.57" arrival="177.00" arrivalLane="-10518543#3_0" arrivalPos="45.72" arrivalSpeed="35.12" duration="127.00" routeLength="3443.86" waitingTime="21.00" waitingCount="1" stopTime="0.00" timeLoss="63.64" rerouteNo="0" devices="tripinfo_316827.50" vType="DEFAULT_VEHTYPE@316827.50" speedFactor="1.96" vaporized=""/>
    <tripinfo id="316827.51" depart="51.00" departLane="972495037_0" departPos="531.07" departSpeed="29.06" departDelay="29.14" arrival="180.00" arrivalLane="-10518543#3_0" arrivalPos="45.72" arrivalSpeed="37.49" duration="129.00" routeLength="3443.86" waitingTime="21.00" waitingCount="1" stopTime="0.00" timeLoss="64.82" rerouteNo="0" devices="tripinfo_316827.51" vType="DEFAULT_VEHTYPE@316827.51" speedFactor="1.93" vaporized=""/>
    <tripinfo id="316827.52" depart="52.00" departLane="972495037_0" departPos="531.07" departSpeed="29.06" departDelay="29.71" arrival="182.00" arrivalLane="-10518543#3_0" arrivalPos="45.72" arrivalSpeed="37.04" duration="130.00" routeLength="3443.86" waitingTime="21.00" waitingCount="1" stopTime="0.00" timeLoss="64.34" rerouteNo="0" devices="tripinfo_316827.52" vType="DEFAULT_VEHTYPE@316827.52" speedFactor="1.87" vaporized=""/>
    <tripinfo id="316827.54" depart="54.00" departLane="972495037_0" departPos="531.07" departSpeed="29.06" departDelay="30.86" arrival="184.00" arrivalLane="-10518543#3_0" arrivalPos="45.72" arrivalSpeed="37.96" duration="130.00" routeLength="3443.86" waitingTime="21.00" waitingCount="1" stopTime="0.00" timeLoss="66.01" rerouteNo="0" devices="tripinfo_316827.54" vType="DEFAULT_VEHTYPE@316827.54" speedFactor="1.99" vaporized=""/>
    <tripinfo id="316827.55" depart="55.00" departLane="972495037_0" departPos="531.07" departSpeed="29.06" departDelay="31.43" arrival="186.00" arrivalLane="-10518543#3_0" arrivalPos="45.72" arrivalSpeed="37.59" duration="131.00" routeLength="3443.86" waitingTime="21.00" waitingCount="1" stopTime="0.00" timeLoss="66.91" rerouteNo="0" devices="tripinfo_316827.55" vType="DEFAULT_VEHTYPE@316827.55" speedFactor="1.94" vaporized=""/>
    <tripinfo id="316827.57" depart="57.00" departLane="972495037_0" departPos="531.07" departSpeed="29.06" departDelay="32.57" arrival="188.00" arrivalLane="-10518543#3_0" arrivalPos="45.72" arrivalSpeed="37.73" duration="131.00" routeLength="3443.86" waitingTime="21.00" waitingCount="1" stopTime="0.00" timeLoss="66.95" rerouteNo="0" devices="tripinfo_316827.57" vType="DEFAULT_VEHTYPE@316827.57" speedFactor="1.96" vaporized=""/>
    <tripinfo id="316827.58" depart="58.00" departLane="972495037_0" departPos="531.07" departSpeed="29.06" departDelay="33.14" arrival="190.00" arrivalLane="-10518543#3_0" arrivalPos="45.72" arrivalSpeed="37.68" duration="132.00" routeLength="3443.86" waitingTime="21.00" waitingCount="1" stopTime="0.00" timeLoss="67.95" rerouteNo="0" devices="tripinfo_316827.58" vType="DEFAULT_VEHTYPE@316827.58" speedFactor="1.95" vaporized=""/>
    <tripinfo id="316827.59" depart="59.00" departLane="972495037_0" departPos="531.07" departSpeed="29.06" departDelay="33.71" arrival="192.00" arrivalLane="-10518543#3_0" arrivalPos="45.72" arrivalSpeed="37.56" duration="133.00" routeLength="3443.86" waitingTime="21.00" waitingCount="1" stopTime="0.00" timeLoss="68.94" rerouteNo="0" devices="tripinfo_316827.59" vType="DEFAULT_VEHTYPE@316827.59" speedFactor="1.94" vaporized=""/>
    <tripinfo id="316827.60" depart="60.00" departLane="972495037_0" departPos="531.07" departSpeed="29.06" departDelay="34.29" arrival="220.00" arrivalLane="-10518543#3_0" arrivalPos="45.72" arrivalSpeed="33.80" duration="160.00" routeLength="3443.86" waitingTime="43.00" waitingCount="2" stopTime="0.00" timeLoss="90.25" rerouteNo="0" devices="tripinfo_316827.60" vType="DEFAULT_VEHTYPE@316827.60" speedFactor="1.73" vaporized=""/>
    <tripinfo id="316827.61" depart="61.00" departLane="972495037_0" departPos="531.07" departSpeed="29.06" departDelay="34.86" arrival="222.00" arrivalLane="-10518543#3_0" arrivalPos="45.72" arrivalSpeed="36.40" duration="161.00" routeLength="3443.86" waitingTime="43.00" waitingCount="2" stopTime="0.00" timeLoss="96.32" rerouteNo="0" devices="tripinfo_316827.61" vType="DEFAULT_VEHTYPE@316827.61" speedFactor="1.89" vaporized=""/>
    <tripinfo id="316827.62" depart="62.00" departLane="972495037_0" departPos="531.07" departSpeed="29.06" departDelay="35.43" arrival="223.00" arrivalLane="-10518543#3_0" arrivalPos="45.72" arrivalSpeed="35.18" duration="161.00" routeLength="3443.86" waitingTime="43.00" waitingCount="2" stopTime="0.00" timeLoss="97.73" rerouteNo="0" devices="tripinfo_316827.62" vType="DEFAULT_VEHTYPE@316827.62" speedFactor="1.97" vaporized=""/>
    <tripinfo id="316827.63" depart="63.00" departLane="972495037_0" departPos="531.07" departSpeed="29.06" departDelay="36.00" arrival="226.00" arrivalLane="-10518543#3_0" arrivalPos="45.72" arrivalSpeed="37.75" duration="163.00" routeLength="3443.86" waitingTime="43.00" waitingCount="2" stopTime="0.00" timeLoss="98.88" rerouteNo="0" devices="tripinfo_316827.63" vType="DEFAULT_VEHTYPE@316827.63" speedFactor="1.96" vaporized=""/>
    <tripinfo id="316827.65" depart="65.00" departLane="972495037_0" departPos="531.07" departSpeed="29.06" departDelay="37.14" arrival="228.00" arrivalLane="-10518543#3_0" arrivalPos="45.72" arrivalSpeed="37.36" duration="163.00" routeLength="3443.86" waitingTime="43.00" waitingCount="2" stopTime="0.00" timeLoss="98.77" rerouteNo="0" devices="tripinfo_316827.65" vType="DEFAULT_VEHTYPE@316827.65" speedFactor="1.91" vaporized=""/>
    <tripinfo id="316827.66" depart="66.00" departLane="972495037_0" departPos="531.07" departSpeed="29.06" departDelay="37.71" arrival="230.00" arrivalLane="-10518543#3_0" arrivalPos="45.72" arrivalSpeed="37.13" duration="164.00" routeLength="3443.86" waitingTime="43.00" waitingCount="2" stopTime="0.00" timeLoss="98.79" rerouteNo="0" devices="tripinfo_316827.66" vType="DEFAULT_VEHTYPE@316827.66" speedFactor="1.88" vaporized=""/>
    <tripinfo id="316827.68" depart="68.00" departLane="972495037_0" departPos="531.07" departSpeed="29.06" departDelay="38.86" arrival="232.00" arrivalLane="-10518543#3_0" arrivalPos="45.72" arrivalSpeed="37.39" duration="164.00" routeLength="3443.86" waitingTime="43.00" waitingCount="2" stopTime="0.00" timeLoss="99.89" rerouteNo="0" devices="tripinfo_316827.68" vType="DEFAULT_VEHTYPE@316827.68" speedFactor="1.91" vaporized=""/>
    <tripinfo id="316827.69" depart="69.00" departLane="972495037_0" departPos="531.07" departSpeed="29.06" departDelay="39.43" arrival="234.00" arrivalLane="-10518543#3_0" arrivalPos="45.72" arrivalSpeed="37.90" duration="165.00" routeLength="3443.86" waitingTime="43.00" waitingCount="2" stopTime="0.00" timeLoss="101.02" rerouteNo="0" devices="tripinfo_316827.69" vType="DEFAULT_VEHTYPE@316827.69" speedFactor="1.98" vaporized=""/>
    <tripinfo id="316827.70" depart="70.00" departLane="972495037_0" departPos="531.07" departSpeed="29.06" departDelay="40.00" arrival="236.00" arrivalLane="-10518543#3_0" arrivalPos="45.72" arrivalSpeed="37.58" duration="166.00" routeLength="3443.86" waitingTime="43.00" waitingCount="2" stopTime="0.00" timeLoss="101.95" rerouteNo="0" devices="tripinfo_316827.70" vType="DEFAULT_VEHTYPE@316827.70" speedFactor="1.94" vaporized=""/>
    <tripinfo id="316827.72" depart="72.00" departLane="972495037_0" departPos="531.07" departSpeed="29.06" departDelay="41.14" arrival="238.00" arrivalLane="-10518543#3_0" arrivalPos="45.72" arrivalSpeed="37.24" duration="166.00" routeLength="3443.86" waitingTime="43.00" waitingCount="2" stopTime="0.00" timeLoss="101.33" rerouteNo="0" devices="tripinfo_316827.72" vType="DEFAULT_VEHTYPE@316827.72" speedFactor="1.89" vaporized=""/>
    <tripinfo id="316827.73" depart="73.00" departLane="972495037_0" departPos="531.07" departSpeed="29.06" departDelay="41.71" arrival="240.00" arrivalLane="-10518543#3_0" arrivalPos="45.72" arrivalSpeed="37.70" duration="167.00" routeLength="3443.86" waitingTime="43.00" waitingCount="2" stopTime="0.00" timeLoss="103.76" rerouteNo="0" devices="tripinfo_316827.73" vType="DEFAULT_VEHTYPE@316827.73" speedFactor="1.96" vaporized=""/>
    <tripinfo id="316827.75" depart="75.00" departLane="972495037_0" departPos="531.07" departSpeed="29.06" departDelay="42.86" arrival="242.00" arrivalLane="-10518543#3_0" arrivalPos="45.72" arrivalSpeed="37.59" duration="167.00" routeLength="3443.86" waitingTime="43.00" waitingCount="2" stopTime="0.00" timeLoss="103.75" rerouteNo="0" devices="tripinfo_316827.75" vType="DEFAULT_VEHTYPE@316827.75" speedFactor="1.94" vaporized=""/>
    <tripinfo id="316827.76" depart="76.00" departLane="972495037_0" departPos="531.07" departSpeed="29.06" departDelay="43.43" arrival="244.00" arrivalLane="-10518543#3_0" arrivalPos="45.72" arrivalSpeed="37.41" duration="168.00" routeLength="3443.86" waitingTime="43.00" waitingCount="2" stopTime="0.00" timeLoss="104.73" rerouteNo="0" devices="tripinfo_316827.76" vType="DEFAULT_VEHTYPE@316827.76" speedFactor="1.92" vaporized=""/>
    <tripinfo id="316827.77" depart="77.00" departLane="972495037_0" departPos="531.07" departSpeed="29.06" departDelay="44.00" arrival="247.00" arrivalLane="-10518543#3_0" arrivalPos="45.72" arrivalSpeed="37.23" duration="170.00" routeLength="3443.86" waitingTime="43.00" waitingCount="2" stopTime="0.00" timeLoss="105.10" rerouteNo="0" devices="tripinfo_316827.77" vType="DEFAULT_VEHTYPE@316827.77" speedFactor="1.89" vaporized=""/>
    <tripinfo id="316827.80" depart="80.00" departLane="972495037_0" departPos="531.07" departSpeed="29.06" departDelay="45.71" arrival="249.00" arrivalLane="-10518543#3_0" arrivalPos="45.72" arrivalSpeed="37.30" duration="169.00" routeLength="3443.86" waitingTime="40.00" waitingCount="2" stopTime="0.00" timeLoss="104.45" rerouteNo="0" devices="tripinfo_316827.80" vType="DEFAULT_VEHTYPE@316827.80" speedFactor="1.90" vaporized=""/>
    <tripinfo id="316827.83" depart="83.00" departLane="972495037_0" departPos="531.07" departSpeed="29.06" departDelay="47.43" arrival="251.00" arrivalLane="-10518543#3_0" arrivalPos="45.72" arrivalSpeed="36.86" duration="168.00" routeLength="3443.86" waitingTime="37.00" waitingCount="2" stopTime="0.00" timeLoss="101.48" rerouteNo="0" devices="tripinfo_316827.83" vType="DEFAULT_VEHTYPE@316827.83" speedFactor="1.84" vaporized=""/>
    <tripinfo id="316827.84" depart="84.00" departLane="972495037_0" departPos="531.07" departSpeed="29.06" departDelay="48.00" arrival="253.00" arrivalLane="-10518543#3_0" arrivalPos="45.72" arrivalSpeed="37.09" duration="169.00" routeLength="3443.86" waitingTime="37.00" waitingCount="2" stopTime="0.00" timeLoss="103.58" rerouteNo="0" devices="tripinfo_316827.84" vType="DEFAULT_VEHTYPE@316827.84" speedFactor="1.87" vaporized=""/>
    <tripinfo id="316827.87" depart="87.00" departLane="972495037_0" departPos="531.07" departSpeed="29.06" departDelay="49.71" arrival="255.00" arrivalLane="-10518543#3_0" arrivalPos="45.72" arrivalSpeed="37.11" duration="168.00" routeLength="3443.86" waitingTime="35.00" waitingCount="2" stopTime="0.00" timeLoss="102.66" rerouteNo="0" devices="tripinfo_316827.87" vType="DEFAULT_VEHTYPE@316827.87" speedFactor="1.87" vaporized=""/>
    <tripinfo id="316827.89" depart="89.00" departLane="972495037_0" departPos="531.07" departSpeed="29.06" departDelay="50.86" arrival="257.00" arrivalLane="-10518543#3_0" arrivalPos="45.72" arrivalSpeed="37.74" duration="168.00" routeLength="3443.86" waitingTime="35.00" waitingCount="2" stopTime="0.00" timeLoss="103.97" rerouteNo="0" devices="tripinfo_316827.89" vType="DEFAULT_VEHTYPE@316827.89" speedFactor="1.96" vaporized=""/>
    <tripinfo id="316827.90" depart="90.00" departLane="972495037_0" departPos="531.07" departSpeed="29.06" departDelay="51.43" arrival="259.00" arrivalLane="-10518543#3_0" arrivalPos="45.72" arrivalSpeed="37.91" duration="169.00" routeLength="3443.86" waitingTime="35.00" waitingCount="2" stopTime="0.00" timeLoss="104.99" rerouteNo="0" devices="tripinfo_316827.90" vType="DEFAULT_VEHTYPE@316827.90" speedFactor="1.98" vaporized=""/>
    <tripinfo id="316827.91" depart="91.00" departLane="972495037_0" departPos="531.07" departSpeed="29.06" departDelay="52.00" arrival="261.00" arrivalLane="-10518543#3_0" arrivalPos="45.72" arrivalSpeed="36.79" duration="170.00" routeLength="3443.86" waitingTime="35.00" waitingCount="2" stopTime="0.00" timeLoss="103.30" rerouteNo="0" devices="tripinfo_316827.91" vType="DEFAULT_VEHTYPE@316827.91" speedFactor="1.83" vaporized=""/>