<?xml version="1.0" encoding="UTF-8"?>

<!-- generated on 2022-12-05 20:29:16 by Eclipse SUMO GUI Version 1.12.0
<configuration xmlns:xsi="http://www.w3.org/2001/XMLSchema-instance" xsi:noNamespaceSchemaLocation="http://sumo.dlr.de/xsd/sumoConfiguration.xsd">

    <input>
        <net-file value="teszt_sacramento.net.xml"/>
        <additional-files value="detector_poi.xml,routes.rou.xml,vehicles.rou.xml"/>
    </input>

    <output>
        <tripinfo-output value="tripinfoWithDistributedControl4States91.xml"/>
        <collision-output value="collisionOut4States91.xml"/>
    </output>

    <processing>
        <ignore-route-errors value="true"/>
        <collision.mingap-factor value="0"/>
    </processing>

    <routing>
        <device.rerouting.adaptation-steps value="18"/>
        <device.rerouting.adaptation-interval value="10"/>
    </routing>

    <report>
        <verbose value="true"/>
        <duration-log.statistics value="true"/>
        <no-step-log value="true"/>
    </report>

    <traci_server>
        <remote-port value="61074"/>
    </traci_server>

    <gui_only>
        <gui-settings-file value="osm.view.xml"/>
        <start value="true"/>
    </gui_only>

</configuration>
-->

<tripinfos xmlns:xsi="http://www.w3.org/2001/XMLSchema-instance" xsi:noNamespaceSchemaLocation="http://sumo.dlr.de/xsd/tripinfo_file.xsd">
</tripinfos>
