<?xml version="1.0" encoding="UTF-8"?>

<!-- generated on 2022-11-25 13:55:21 by Eclipse SUMO GUI Version 1.12.0
<configuration xmlns:xsi="http://www.w3.org/2001/XMLSchema-instance" xsi:noNamespaceSchemaLocation="http://sumo.dlr.de/xsd/sumoConfiguration.xsd">

    <input>
        <net-file value="D:\4.ev\Szakdolgozat\Dokumentumok\Vegleges%20modell\UndistributedSimulation\teszt_sacramento2.net.xml"/>
        <additional-files value="D:\4.ev\Szakdolgozat\Dokumentumok\Vegleges%20modell\UndistributedSimulation\detector_poi.xml,D:\4.ev\Szakdolgozat\Dokumentumok\Vegleges%20modell\UndistributedSimulation\routes.rou.xml,D:\4.ev\Szakdolgozat\Dokumentumok\Vegleges%20modell\UndistributedSimulation\vehicles.rou.xml"/>
    </input>

    <output>
        <tripinfo-output value="D:\4.ev\Szakdolgozat\Dokumentumok\Vegleges%20modell\UndistributedSimulation\tripinfoWithoutDistributedControl2.xml"/>
        <collision-output value="D:\4.ev\Szakdolgozat\Dokumentumok\Vegleges%20modell\UndistributedSimulation\collisionWithoutDistributedControl2.xml"/>
    </output>

    <processing>
        <ignore-route-errors value="true"/>
    </processing>

    <routing>
        <device.rerouting.adaptation-steps value="18"/>
        <device.rerouting.adaptation-interval value="10"/>
    </routing>

    <report>
        <verbose value="true"/>
        <duration-log.statistics value="true"/>
        <no-step-log value="true"/>
    </report>

    <gui_only>
        <gui-settings-file value="D:\4.ev\Szakdolgozat\Dokumentumok\Vegleges%20modell\UndistributedSimulation\osm.view.xml"/>
    </gui_only>

</configuration>
-->

<tripinfos xmlns:xsi="http://www.w3.org/2001/XMLSchema-instance" xsi:noNamespaceSchemaLocation="http://sumo.dlr.de/xsd/tripinfo_file.xsd">
    <tripinfo id="316827.0" depart="0.00" departLane="972495037_0" departPos="531.07" departSpeed="29.06" departDelay="0.00" arrival="74.00" arrivalLane="-10518543#3_0" arrivalPos="45.72" arrivalSpeed="37.57" duration="74.00" routeLength="3443.86" waitingTime="0.00" waitingCount="0" stopTime="0.00" timeLoss="9.94" rerouteNo="0" devices="tripinfo_316827.0" vType="DEFAULT_VEHTYPE" speedFactor="1.94" vaporized=""/>
    <tripinfo id="316827.1" depart="1.00" departLane="972495037_0" departPos="531.07" departSpeed="29.06" departDelay="0.57" arrival="77.00" arrivalLane="-10518543#3_0" arrivalPos="45.72" arrivalSpeed="36.78" duration="76.00" routeLength="3443.86" waitingTime="0.00" waitingCount="0" stopTime="0.00" timeLoss="10.03" rerouteNo="0" devices="tripinfo_316827.1" vType="DEFAULT_VEHTYPE" speedFactor="1.83" vaporized=""/>
    <tripinfo id="316827.2" depart="2.00" departLane="972495037_0" departPos="531.07" departSpeed="29.06" departDelay="1.14" arrival="79.00" arrivalLane="-10518543#3_0" arrivalPos="45.72" arrivalSpeed="37.19" duration="77.00" routeLength="3443.86" waitingTime="0.00" waitingCount="0" stopTime="0.00" timeLoss="12.04" rerouteNo="0" devices="tripinfo_316827.2" vType="DEFAULT_VEHTYPE" speedFactor="1.89" vaporized=""/>
    <tripinfo id="316827.3" depart="3.00" departLane="972495037_0" departPos="531.07" departSpeed="29.06" departDelay="1.71" arrival="80.00" arrivalLane="-10518543#3_0" arrivalPos="45.72" arrivalSpeed="37.19" duration="77.00" routeLength="3443.86" waitingTime="0.00" waitingCount="0" stopTime="0.00" timeLoss="13.84" rerouteNo="0" devices="tripinfo_316827.3" vType="DEFAULT_VEHTYPE" speedFactor="1.94" vaporized=""/>
    <tripinfo id="316827.4" depart="4.00" departLane="972495037_0" departPos="531.07" departSpeed="29.06" departDelay="2.29" arrival="82.00" arrivalLane="-10518543#3_0" arrivalPos="45.72" arrivalSpeed="36.97" duration="78.00" routeLength="3443.86" waitingTime="0.00" waitingCount="0" stopTime="0.00" timeLoss="12.08" rerouteNo="0" devices="tripinfo_316827.4" vType="DEFAULT_VEHTYPE" speedFactor="1.86" vaporized=""/>
    <tripinfo id="316827.5" depart="5.00" departLane="972495037_0" departPos="531.07" departSpeed="29.06" departDelay="2.86" arrival="83.00" arrivalLane="-10518543#3_0" arrivalPos="45.72" arrivalSpeed="35.36" duration="78.00" routeLength="3443.86" waitingTime="0.00" waitingCount="0" stopTime="0.00" timeLoss="14.69" rerouteNo="0" devices="tripinfo_316827.5" vType="DEFAULT_VEHTYPE" speedFactor="1.99" vaporized=""/>
    <tripinfo id="316827.6" depart="6.00" departLane="972495037_0" departPos="531.07" departSpeed="29.06" departDelay="3.43" arrival="85.00" arrivalLane="-10518543#3_0" arrivalPos="45.72" arrivalSpeed="37.49" duration="79.00" routeLength="3443.86" waitingTime="0.00" waitingCount="0" stopTime="0.00" timeLoss="14.94" rerouteNo="0" devices="tripinfo_316827.6" vType="DEFAULT_VEHTYPE" speedFactor="1.93" vaporized=""/>
    <tripinfo id="316827.7" depart="7.00" departLane="972495037_0" departPos="531.07" departSpeed="29.06" departDelay="4.00" arrival="87.00" arrivalLane="-10518543#3_0" arrivalPos="45.72" arrivalSpeed="37.13" duration="80.00" routeLength="3443.86" waitingTime="0.00" waitingCount="0" stopTime="0.00" timeLoss="14.71" rerouteNo="0" devices="tripinfo_316827.7" vType="DEFAULT_VEHTYPE" speedFactor="1.88" vaporized=""/>
    <tripinfo id="316827.8" depart="8.00" departLane="972495037_0" departPos="531.07" departSpeed="29.06" departDelay="4.57" arrival="88.00" arrivalLane="-10518543#3_0" arrivalPos="45.72" arrivalSpeed="37.13" duration="80.00" routeLength="3443.86" waitingTime="0.00" waitingCount="0" stopTime="0.00" timeLoss="16.08" rerouteNo="0" devices="tripinfo_316827.8" vType="DEFAULT_VEHTYPE" speedFactor="1.94" vaporized=""/>
    <tripinfo id="316827.9" depart="9.00" departLane="972495037_0" departPos="531.07" departSpeed="29.06" departDelay="5.14" arrival="90.00" arrivalLane="-10518543#3_0" arrivalPos="45.72" arrivalSpeed="37.55" duration="81.00" routeLength="3443.86" waitingTime="0.00" waitingCount="0" stopTime="0.00" timeLoss="16.86" rerouteNo="0" devices="tripinfo_316827.9" vType="DEFAULT_VEHTYPE" speedFactor="1.94" vaporized=""/>
    <tripinfo id="316827.10" depart="10.00" departLane="972495037_0" departPos="531.07" departSpeed="29.06" departDelay="5.71" arrival="91.00" arrivalLane="-10518543#3_0" arrivalPos="45.72" arrivalSpeed="37.55" duration="81.00" routeLength="3443.86" waitingTime="0.00" waitingCount="0" stopTime="0.00" timeLoss="17.12" rerouteNo="0" devices="tripinfo_316827.10" vType="DEFAULT_VEHTYPE" speedFactor="1.98" vaporized=""/>
    <tripinfo id="316827.11" depart="11.00" departLane="972495037_0" departPos="531.07" departSpeed="29.06" departDelay="6.29" arrival="93.00" arrivalLane="-10518543#3_0" arrivalPos="45.72" arrivalSpeed="37.21" duration="82.00" routeLength="3443.86" waitingTime="0.00" waitingCount="0" stopTime="0.00" timeLoss="17.12" rerouteNo="0" devices="tripinfo_316827.11" vType="DEFAULT_VEHTYPE" speedFactor="1.89" vaporized=""/>
    <tripinfo id="316827.13" depart="13.00" departLane="972495037_0" departPos="531.07" departSpeed="29.06" departDelay="7.43" arrival="95.00" arrivalLane="-10518543#3_0" arrivalPos="45.72" arrivalSpeed="37.09" duration="82.00" routeLength="3443.86" waitingTime="0.00" waitingCount="0" stopTime="0.00" timeLoss="16.48" rerouteNo="0" devices="tripinfo_316827.13" vType="DEFAULT_VEHTYPE" speedFactor="1.87" vaporized=""/>
    <tripinfo id="316827.12" depart="12.00" departLane="972495037_0" departPos="531.07" departSpeed="29.06" departDelay="6.86" arrival="96.00" arrivalLane="-10518543#3_0" arrivalPos="45.72" arrivalSpeed="36.75" duration="84.00" routeLength="3443.86" waitingTime="0.00" waitingCount="0" stopTime="0.00" timeLoss="17.03" rerouteNo="0" devices="tripinfo_316827.12" vType="DEFAULT_VEHTYPE" speedFactor="1.83" vaporized=""/>
    <tripinfo id="316827.14" depart="14.00" departLane="972495037_0" departPos="531.07" departSpeed="29.06" departDelay="8.00" arrival="98.00" arrivalLane="-10518543#3_0" arrivalPos="45.72" arrivalSpeed="37.41" duration="84.00" routeLength="3443.86" waitingTime="0.00" waitingCount="0" stopTime="0.00" timeLoss="19.82" rerouteNo="0" devices="tripinfo_316827.14" vType="DEFAULT_VEHTYPE" speedFactor="1.92" vaporized=""/>
    <tripinfo id="316827.15" depart="15.00" departLane="972495037_0" departPos="531.07" departSpeed="29.06" departDelay="8.57" arrival="99.00" arrivalLane="-10518543#3_0" arrivalPos="45.72" arrivalSpeed="37.42" duration="84.00" routeLength="3443.86" waitingTime="0.00" waitingCount="0" stopTime="0.00" timeLoss="20.06" rerouteNo="0" devices="tripinfo_316827.15" vType="DEFAULT_VEHTYPE" speedFactor="1.95" vaporized=""/>
    <tripinfo id="316827.16" depart="16.00" departLane="972495037_0" departPos="531.07" departSpeed="29.06" departDelay="9.14" arrival="101.00" arrivalLane="-10518543#3_0" arrivalPos="45.72" arrivalSpeed="37.52" duration="85.00" routeLength="3443.86" waitingTime="0.00" waitingCount="0" stopTime="0.00" timeLoss="20.83" rerouteNo="0" devices="tripinfo_316827.16" vType="DEFAULT_VEHTYPE" speedFactor="1.93" vaporized=""/>
    <tripinfo id="316827.18" depart="18.00" departLane="972495037_0" departPos="531.07" departSpeed="29.06" departDelay="10.29" arrival="102.00" arrivalLane="-10518543#3_0" arrivalPos="45.72" arrivalSpeed="37.49" duration="84.00" routeLength="3443.86" waitingTime="0.00" waitingCount="0" stopTime="0.00" timeLoss="20.10" rerouteNo="0" devices="tripinfo_316827.18" vType="DEFAULT_VEHTYPE" speedFactor="1.97" vaporized=""/>
    <tripinfo id="316827.17" depart="17.00" departLane="972495037_0" departPos="531.07" departSpeed="29.06" departDelay="9.71" arrival="103.00" arrivalLane="-10518543#3_0" arrivalPos="45.72" arrivalSpeed="35.38" duration="86.00" routeLength="3443.86" waitingTime="0.00" waitingCount="0" stopTime="0.00" timeLoss="22.72" rerouteNo="0" devices="tripinfo_316827.17" vType="DEFAULT_VEHTYPE" speedFactor="1.99" vaporized=""/>
    <tripinfo id="316827.19" depart="19.00" departLane="972495037_0" departPos="531.07" departSpeed="29.06" departDelay="10.86" arrival="105.00" arrivalLane="-10518543#3_0" arrivalPos="45.72" arrivalSpeed="37.29" duration="86.00" routeLength="3443.86" waitingTime="0.00" waitingCount="0" stopTime="0.00" timeLoss="21.59" rerouteNo="0" devices="tripinfo_316827.19" vType="DEFAULT_VEHTYPE" speedFactor="1.90" vaporized=""/>
    <tripinfo id="316827.20" depart="20.00" departLane="972495037_0" departPos="531.07" departSpeed="29.06" departDelay="11.43" arrival="107.00" arrivalLane="-10518543#3_0" arrivalPos="45.72" arrivalSpeed="37.71" duration="87.00" routeLength="3443.86" waitingTime="0.00" waitingCount="0" stopTime="0.00" timeLoss="22.91" rerouteNo="0" devices="tripinfo_316827.20" vType="DEFAULT_VEHTYPE" speedFactor="1.96" vaporized=""/>
    <tripinfo id="316827.21" depart="21.00" departLane="972495037_0" departPos="531.07" departSpeed="29.06" departDelay="12.00" arrival="108.00" arrivalLane="-10518543#3_0" arrivalPos="45.72" arrivalSpeed="37.71" duration="87.00" routeLength="3443.86" waitingTime="0.00" waitingCount="0" stopTime="0.00" timeLoss="23.88" rerouteNo="0" devices="tripinfo_316827.21" vType="DEFAULT_VEHTYPE" speedFactor="2.00" vaporized=""/>
    <tripinfo id="316827.22" depart="22.00" departLane="972495037_0" departPos="531.07" departSpeed="29.06" departDelay="12.57" arrival="110.00" arrivalLane="-10518543#3_0" arrivalPos="45.72" arrivalSpeed="37.29" duration="88.00" routeLength="3443.86" waitingTime="0.00" waitingCount="0" stopTime="0.00" timeLoss="23.49" rerouteNo="0" devices="tripinfo_316827.22" vType="DEFAULT_VEHTYPE" speedFactor="1.90" vaporized=""/>
    <tripinfo id="316827.23" depart="23.00" departLane="972495037_0" departPos="531.07" departSpeed="29.06" departDelay="13.14" arrival="112.00" arrivalLane="-10518543#3_0" arrivalPos="45.72" arrivalSpeed="37.12" duration="89.00" routeLength="3443.86" waitingTime="0.00" waitingCount="0" stopTime="0.00" timeLoss="23.61" rerouteNo="0" devices="tripinfo_316827.23" vType="DEFAULT_VEHTYPE" speedFactor="1.88" vaporized=""/>
    <tripinfo id="316827.24" depart="24.00" departLane="972495037_0" departPos="531.07" departSpeed="29.06" departDelay="13.71" arrival="113.00" arrivalLane="-10518543#3_0" arrivalPos="45.72" arrivalSpeed="36.93" duration="89.00" routeLength="3443.86" waitingTime="0.00" waitingCount="0" stopTime="0.00" timeLoss="22.87" rerouteNo="0" devices="tripinfo_316827.24" vType="DEFAULT_VEHTYPE" speedFactor="1.85" vaporized=""/>
    <tripinfo id="316827.25" depart="25.00" departLane="972495037_0" departPos="531.07" departSpeed="29.06" departDelay="14.29" arrival="115.00" arrivalLane="-10518543#3_0" arrivalPos="45.72" arrivalSpeed="36.96" duration="90.00" routeLength="3443.86" waitingTime="0.00" waitingCount="0" stopTime="0.00" timeLoss="23.91" rerouteNo="0" devices="tripinfo_316827.25" vType="DEFAULT_VEHTYPE" speedFactor="1.85" vaporized=""/>
    <tripinfo id="316827.26" depart="26.00" departLane="972495037_0" departPos="531.07" departSpeed="29.06" departDelay="14.86" arrival="116.00" arrivalLane="-10518543#3_0" arrivalPos="45.72" arrivalSpeed="36.96" duration="90.00" routeLength="3443.86" waitingTime="0.00" waitingCount="0" stopTime="0.00" timeLoss="26.28" rerouteNo="0" devices="tripinfo_316827.26" vType="DEFAULT_VEHTYPE" speedFactor="2.00" vaporized=""/>
    <tripinfo id="316827.28" depart="28.00" departLane="972495037_0" departPos="531.07" departSpeed="29.06" departDelay="16.00" arrival="117.00" arrivalLane="-10518543#3_0" arrivalPos="45.72" arrivalSpeed="35.20" duration="89.00" routeLength="3443.86" waitingTime="0.00" waitingCount="0" stopTime="0.00" timeLoss="25.70" rerouteNo="0" devices="tripinfo_316827.28" vType="DEFAULT_VEHTYPE" speedFactor="1.97" vaporized=""/>
    <tripinfo id="316827.27" depart="27.00" departLane="972495037_0" departPos="531.07" departSpeed="29.06" departDelay="15.43" arrival="145.00" arrivalLane="-10518543#3_0" arrivalPos="45.72" arrivalSpeed="33.80" duration="118.00" routeLength="3443.86" waitingTime="22.00" waitingCount="1" stopTime="0.00" timeLoss="54.32" rerouteNo="0" devices="tripinfo_316827.27" vType="DEFAULT_VEHTYPE" speedFactor="1.90" vaporized=""/>
    <tripinfo id="316827.29" depart="29.00" departLane="972495037_0" departPos="531.07" departSpeed="29.06" departDelay="16.57" arrival="147.00" arrivalLane="-10518543#3_0" arrivalPos="45.72" arrivalSpeed="36.40" duration="118.00" routeLength="3443.86" waitingTime="22.00" waitingCount="1" stopTime="0.00" timeLoss="54.36" rerouteNo="0" devices="tripinfo_316827.29" vType="DEFAULT_VEHTYPE" speedFactor="1.99" vaporized=""/>
    <tripinfo id="316827.30" depart="30.00" departLane="972495037_0" departPos="531.07" departSpeed="29.06" departDelay="17.14" arrival="148.00" arrivalLane="-10518543#3_0" arrivalPos="45.72" arrivalSpeed="36.40" duration="118.00" routeLength="3443.86" waitingTime="22.00" waitingCount="1" stopTime="0.00" timeLoss="54.24" rerouteNo="0" devices="tripinfo_316827.30" vType="DEFAULT_VEHTYPE" speedFactor="1.94" vaporized=""/>
    <tripinfo id="316827.31" depart="31.00" departLane="972495037_0" departPos="531.07" departSpeed="29.06" departDelay="17.71" arrival="149.00" arrivalLane="-10518543#3_0" arrivalPos="45.72" arrivalSpeed="36.40" duration="118.00" routeLength="3443.86" waitingTime="22.00" waitingCount="1" stopTime="0.00" timeLoss="53.30" rerouteNo="0" devices="tripinfo_316827.31" vType="DEFAULT_VEHTYPE" speedFactor="1.88" vaporized=""/>
    <tripinfo id="316827.33" depart="33.00" departLane="972495037_0" departPos="531.07" departSpeed="29.06" departDelay="18.86" arrival="151.00" arrivalLane="-10518543#3_0" arrivalPos="45.72" arrivalSpeed="37.40" duration="118.00" routeLength="3443.86" waitingTime="22.00" waitingCount="1" stopTime="0.00" timeLoss="53.86" rerouteNo="0" devices="tripinfo_316827.33" vType="DEFAULT_VEHTYPE" speedFactor="1.91" vaporized=""/>
    <tripinfo id="316827.32" depart="32.00" departLane="972495037_0" departPos="531.07" departSpeed="29.06" departDelay="18.29" arrival="152.00" arrivalLane="-10518543#3_0" arrivalPos="45.72" arrivalSpeed="37.34" duration="120.00" routeLength="3443.86" waitingTime="22.00" waitingCount="1" stopTime="0.00" timeLoss="55.83" rerouteNo="0" devices="tripinfo_316827.32" vType="DEFAULT_VEHTYPE" speedFactor="1.91" vaporized=""/>
    <tripinfo id="316827.34" depart="34.00" departLane="972495037_0" departPos="531.07" departSpeed="29.06" departDelay="19.43" arrival="153.00" arrivalLane="-10518543#3_0" arrivalPos="45.72" arrivalSpeed="35.22" duration="119.00" routeLength="3443.86" waitingTime="22.00" waitingCount="1" stopTime="0.00" timeLoss="55.71" rerouteNo="0" devices="tripinfo_316827.34" vType="DEFAULT_VEHTYPE" speedFactor="1.97" vaporized=""/>
    <tripinfo id="316827.35" depart="35.00" departLane="972495037_0" departPos="531.07" departSpeed="29.06" departDelay="20.00" arrival="155.00" arrivalLane="-10518543#3_0" arrivalPos="45.72" arrivalSpeed="37.58" duration="120.00" routeLength="3443.86" waitingTime="22.00" waitingCount="1" stopTime="0.00" timeLoss="56.74" rerouteNo="0" devices="tripinfo_316827.35" vType="DEFAULT_VEHTYPE" speedFactor="1.94" vaporized=""/>
    <tripinfo id="316827.36" depart="36.00" departLane="972495037_0" departPos="531.07" departSpeed="29.06" departDelay="20.57" arrival="157.00" arrivalLane="-10518543#3_0" arrivalPos="45.72" arrivalSpeed="37.69" duration="121.00" routeLength="3443.86" waitingTime="22.00" waitingCount="1" stopTime="0.00" timeLoss="56.90" rerouteNo="0" devices="tripinfo_316827.36" vType="DEFAULT_VEHTYPE" speedFactor="1.96" vaporized=""/>
    <tripinfo id="316827.37" depart="37.00" departLane="972495037_0" departPos="531.07" departSpeed="29.06" departDelay="21.14" arrival="158.00" arrivalLane="-10518543#3_0" arrivalPos="45.72" arrivalSpeed="37.69" duration="121.00" routeLength="3443.86" waitingTime="22.00" waitingCount="1" stopTime="0.00" timeLoss="57.85" rerouteNo="0" devices="tripinfo_316827.37" vType="DEFAULT_VEHTYPE" speedFactor="1.98" vaporized=""/>
    <tripinfo id="316827.39" depart="39.00" departLane="972495037_0" departPos="531.07" departSpeed="29.06" departDelay="22.29" arrival="159.00" arrivalLane="-10518543#3_0" arrivalPos="45.72" arrivalSpeed="35.41" duration="120.00" routeLength="3443.86" waitingTime="22.00" waitingCount="1" stopTime="0.00" timeLoss="56.76" rerouteNo="0" devices="tripinfo_316827.39" vType="DEFAULT_VEHTYPE" speedFactor="2.00" vaporized=""/>
    <tripinfo id="316827.38" depart="38.00" departLane="972495037_0" departPos="531.07" departSpeed="29.06" departDelay="21.71" arrival="161.00" arrivalLane="-10518543#3_0" arrivalPos="45.72" arrivalSpeed="37.89" duration="123.00" routeLength="3443.86" waitingTime="22.00" waitingCount="1" stopTime="0.00" timeLoss="59.82" rerouteNo="0" devices="tripinfo_316827.38" vType="DEFAULT_VEHTYPE" speedFactor="1.98" vaporized=""/>
    <tripinfo id="316827.40" depart="40.00" departLane="972495037_0" departPos="531.07" departSpeed="29.06" departDelay="22.86" arrival="163.00" arrivalLane="-10518543#3_0" arrivalPos="45.72" arrivalSpeed="37.78" duration="123.00" routeLength="3443.86" waitingTime="22.00" waitingCount="1" stopTime="0.00" timeLoss="58.94" rerouteNo="0" devices="tripinfo_316827.40" vType="DEFAULT_VEHTYPE" speedFactor="1.97" vaporized=""/>
    <tripinfo id="316827.80" depart="80.00" departLane="972495037_0" departPos="531.07" departSpeed="29.06" departDelay="45.71" arrival="164.00" arrivalLane="-10518543#3_0" arrivalPos="45.72" arrivalSpeed="34.95" duration="84.00" routeLength="3443.86" waitingTime="0.00" waitingCount="0" stopTime="0.00" timeLoss="20.21" rerouteNo="0" devices="tripinfo_316827.80" vType="DEFAULT_VEHTYPE" speedFactor="1.90" vaporized=""/>
    <tripinfo id="316827.41" depart="41.00" departLane="972495037_0" departPos="531.07" departSpeed="29.06" departDelay="23.43" arrival="165.00" arrivalLane="-10518543#3_0" arrivalPos="45.72" arrivalSpeed="35.01" duration="124.00" routeLength="3443.86" waitingTime="22.00" waitingCount="1" stopTime="0.00" timeLoss="60.78" rerouteNo="0" devices="tripinfo_316827.41" vType="DEFAULT_VEHTYPE" speedFactor="1.98" vaporized=""/>
    <tripinfo id="316827.44" depart="44.00" departLane="972495037_0" departPos="531.07" departSpeed="29.06" departDelay="25.14" arrival="167.00" arrivalLane="-10518543#3_0" arrivalPos="45.72" arrivalSpeed="37.45" duration="123.00" routeLength="3443.86" waitingTime="22.00" waitingCount="1" stopTime="0.00" timeLoss="59.02" rerouteNo="0" devices="tripinfo_316827.44" vType="DEFAULT_VEHTYPE" speedFactor="1.92" vaporized=""/>
    <tripinfo id="316827.42" depart="42.00" departLane="972495037_0" departPos="531.07" departSpeed="29.06" departDelay="24.00" arrival="169.00" arrivalLane="-10518543#3_0" arrivalPos="45.72" arrivalSpeed="37.23" duration="127.00" routeLength="3443.86" waitingTime="22.00" waitingCount="1" stopTime="0.00" timeLoss="62.16" rerouteNo="0" devices="tripinfo_316827.42" vType="DEFAULT_VEHTYPE" speedFactor="1.89" vaporized=""/>
    <tripinfo id="316827.84" depart="84.00" departLane="972495037_0" departPos="531.07" departSpeed="29.06" departDelay="48.00" arrival="170.00" arrivalLane="-10518543#3_0" arrivalPos="45.72" arrivalSpeed="36.54" duration="86.00" routeLength="3443.86" waitingTime="0.00" waitingCount="0" stopTime="0.00" timeLoss="20.81" rerouteNo="0" devices="tripinfo_316827.84" vType="DEFAULT_VEHTYPE" speedFactor="1.87" vaporized=""/>
    <tripinfo id="316827.43" depart="43.00" departLane="972495037_0" departPos="531.07" departSpeed="29.06" departDelay="24.57" arrival="172.00" arrivalLane="-10518543#3_0" arrivalPos="45.72" arrivalSpeed="36.80" duration="129.00" routeLength="3443.86" waitingTime="22.00" waitingCount="1" stopTime="0.00" timeLoss="62.26" rerouteNo="0" devices="tripinfo_316827.43" vType="DEFAULT_VEHTYPE" speedFactor="1.83" vaporized=""/>
    <tripinfo id="316827.86" depart="86.00" departLane="972495037_0" departPos="531.07" departSpeed="29.06" departDelay="49.14" arrival="173.00" arrivalLane="-10518543#3_0" arrivalPos="45.72" arrivalSpeed="35.85" duration="87.00" routeLength="3443.86" waitingTime="0.00" waitingCount="0" stopTime="0.00" timeLoss="23.46" rerouteNo="0" devices="tripinfo_316827.86" vType="DEFAULT_VEHTYPE" speedFactor="1.95" vaporized=""/>
    <tripinfo id="316827.45" depart="45.00" departLane="972495037_0" departPos="531.07" departSpeed="29.06" departDelay="25.71" arrival="174.00" arrivalLane="-10518543#3_0" arrivalPos="45.72" arrivalSpeed="35.78" duration="129.00" routeLength="3443.86" waitingTime="22.00" waitingCount="1" stopTime="0.00" timeLoss="65.87" rerouteNo="0" devices="tripinfo_316827.45" vType="DEFAULT_VEHTYPE" speedFactor="1.91" vaporized=""/>
    <tripinfo id="316827.46" depart="46.00" departLane="972495037_0" departPos="531.07" departSpeed="29.06" departDelay="26.29" arrival="176.00" arrivalLane="-10518543#3_0" arrivalPos="45.72" arrivalSpeed="37.70" duration="130.00" routeLength="3443.86" waitingTime="22.00" waitingCount="1" stopTime="0.00" timeLoss="66.03" rerouteNo="0" devices="tripinfo_316827.46" vType="DEFAULT_VEHTYPE" speedFactor="1.96" vaporized=""/>
    <tripinfo id="316827.47" depart="47.00" departLane="972495037_0" departPos="531.07" departSpeed="29.06" departDelay="26.86" arrival="177.00" arrivalLane="-10518543#3_0" arrivalPos="45.72" arrivalSpeed="35.19" duration="130.00" routeLength="3443.86" waitingTime="22.00" waitingCount="1" stopTime="0.00" timeLoss="66.61" rerouteNo="0" devices="tripinfo_316827.47" vType="DEFAULT_VEHTYPE" speedFactor="1.97" vaporized=""/>
    <tripinfo id="316827.49" depart="49.00" departLane="972495037_0" departPos="531.07" departSpeed="29.06" departDelay="28.00" arrival="179.00" arrivalLane="-10518543#3_0" arrivalPos="45.72" arrivalSpeed="37.24" duration="130.00" routeLength="3443.86" waitingTime="22.00" waitingCount="1" stopTime="0.00" timeLoss="65.32" rerouteNo="0" devices="tripinfo_316827.49" vType="DEFAULT_VEHTYPE" speedFactor="1.89" vaporized=""/>
    <tripinfo id="316827.48" depart="48.00" departLane="972495037_0" departPos="531.07" departSpeed="29.06" departDelay="27.43" arrival="180.00" arrivalLane="-10518543#3_0" arrivalPos="45.72" arrivalSpeed="35.07" duration="132.00" routeLength="3443.86" waitingTime="22.00" waitingCount="1" stopTime="0.00" timeLoss="68.64" rerouteNo="0" devices="tripinfo_316827.48" vType="DEFAULT_VEHTYPE" speedFactor="1.95" vaporized=""/>
    <tripinfo id="316827.54" depart="54.00" departLane="972495037_0" departPos="531.07" departSpeed="29.06" departDelay="30.86" arrival="182.00" arrivalLane="-10518543#3_0" arrivalPos="45.72" arrivalSpeed="37.67" duration="128.00" routeLength="3443.86" waitingTime="22.00" waitingCount="1" stopTime="0.00" timeLoss="64.11" rerouteNo="0" devices="tripinfo_316827.54" vType="DEFAULT_VEHTYPE" speedFactor="1.99" vaporized=""/>
    <tripinfo id="316827.50" depart="50.00" departLane="972495037_0" departPos="531.07" departSpeed="29.06" departDelay="28.57" arrival="183.00" arrivalLane="-10518543#3_0" arrivalPos="45.72" arrivalSpeed="35.12" duration="133.00" routeLength="3443.86" waitingTime="22.00" waitingCount="1" stopTime="0.00" timeLoss="69.64" rerouteNo="0" devices="tripinfo_316827.50" vType="DEFAULT_VEHTYPE" speedFactor="1.96" vaporized=""/>
    <tripinfo id="316827.51" depart="51.00" departLane="972495037_0" departPos="531.07" departSpeed="29.06" departDelay="29.14" arrival="185.00" arrivalLane="-10518543#3_0" arrivalPos="45.72" arrivalSpeed="37.49" duration="134.00" routeLength="3443.86" waitingTime="22.00" waitingCount="1" stopTime="0.00" timeLoss="69.95" rerouteNo="0" devices="tripinfo_316827.51" vType="DEFAULT_VEHTYPE" speedFactor="1.93" vaporized=""/>
    <tripinfo id="316827.52" depart="52.00" departLane="972495037_0" departPos="531.07" departSpeed="29.06" departDelay="29.71" arrival="187.00" arrivalLane="-10518543#3_0" arrivalPos="45.72" arrivalSpeed="37.04" duration="135.00" routeLength="3443.86" waitingTime="22.00" waitingCount="1" stopTime="0.00" timeLoss="69.33" rerouteNo="0" devices="tripinfo_316827.52" vType="DEFAULT_VEHTYPE" speedFactor="1.87" vaporized=""/>
    <tripinfo id="316827.53" depart="53.00" departLane="972495037_0" departPos="531.07" departSpeed="29.06" departDelay="30.29" arrival="188.00" arrivalLane="-10518543#3_0" arrivalPos="45.72" arrivalSpeed="37.04" duration="135.00" routeLength="3443.86" waitingTime="22.00" waitingCount="1" stopTime="0.00" timeLoss="71.80" rerouteNo="0" devices="tripinfo_316827.53" vType="DEFAULT_VEHTYPE" speedFactor="1.92" vaporized=""/>
    <tripinfo id="316827.105" depart="105.00" departLane="972495037_0" departPos="531.07" departSpeed="29.06" departDelay="60.00" arrival="190.00" arrivalLane="-10518543#3_0" arrivalPos="45.72" arrivalSpeed="34.73" duration="85.00" routeLength="3443.86" waitingTime="0.00" waitingCount="0" stopTime="0.00" timeLoss="21.83" rerouteNo="0" devices="tripinfo_316827.105" vType="DEFAULT_VEHTYPE" speedFactor="1.97" vaporized=""/>
    <tripinfo id="316827.55" depart="55.00" departLane="972495037_0" departPos="531.07" departSpeed="29.06" departDelay="31.43" arrival="192.00" arrivalLane="-10518543#3_0" arrivalPos="45.72" arrivalSpeed="37.36" duration="137.00" routeLength="3443.86" waitingTime="22.00" waitingCount="1" stopTime="0.00" timeLoss="72.97" rerouteNo="0" devices="tripinfo_316827.55" vType="DEFAULT_VEHTYPE" speedFactor="1.94" vaporized=""/>
    <tripinfo id="316827.56" depart="56.00" departLane="972495037_0" departPos="531.07" departSpeed="29.06" departDelay="32.00" arrival="220.00" arrivalLane="-10518543#3_0" arrivalPos="45.72" arrivalSpeed="33.80" duration="164.00" routeLength="3443.86" waitingTime="45.00" waitingCount="2" stopTime="0.00" timeLoss="97.64" rerouteNo="0" devices="tripinfo_316827.56" vType="DEFAULT_VEHTYPE" speedFactor="1.82" vaporized=""/>
    <tripinfo id="316827.57" depart="57.00" departLane="972495037_0" departPos="531.07" departSpeed="29.06" departDelay="32.57" arrival="222.00" arrivalLane="-10518543#3_0" arrivalPos="45.72" arrivalSpeed="36.40" duration="165.00" routeLength="3443.86" waitingTime="45.00" waitingCount="2" stopTime="0.00" timeLoss="101.28" rerouteNo="0" devices="tripinfo_316827.57" vType="DEFAULT_VEHTYPE" speedFactor="1.96" vaporized=""/>
    <tripinfo id="316827.67" depart="67.00" departLane="972495037_0" departPos="531.07" departSpeed="29.06" departDelay="38.29" arrival="223.00" arrivalLane="-10518543#3_0" arrivalPos="45.72" arrivalSpeed="34.53" duration="156.00" routeLength="3443.86" waitingTime="40.00" waitingCount="2" stopTime="0.00" timeLoss="92.94" rerouteNo="0" devices="tripinfo_316827.67" vType="DEFAULT_VEHTYPE" speedFactor="1.99" vaporized=""/>
    <tripinfo id="316827.59" depart="59.00" departLane="972495037_0" departPos="531.07" departSpeed="29.06" departDelay="33.71" arrival="226.00" arrivalLane="-10518543#3_0" arrivalPos="45.72" arrivalSpeed="36.58" duration="167.00" routeLength="3443.86" waitingTime="46.00" waitingCount="3" stopTime="0.00" timeLoss="103.18" rerouteNo="0" devices="tripinfo_316827.59" vType="DEFAULT_VEHTYPE" speedFactor="1.94" vaporized=""/>
    <tripinfo id="316827.68" depart="68.00" departLane="972495037_0" departPos="531.07" departSpeed="29.06" departDelay="38.86" arrival="229.00" arrivalLane="-10518543#3_0" arrivalPos="45.72" arrivalSpeed="34.68" duration="161.00" routeLength="3443.86" waitingTime="39.00" waitingCount="3" stopTime="0.00" timeLoss="97.45" rerouteNo="0" devices="tripinfo_316827.68" vType="DEFAULT_VEHTYPE" speedFactor="1.91" vaporized=""/>
    <tripinfo id="316827.95" depart="95.00" departLane="972495037_0" departPos="531.07" departSpeed="29.06" departDelay="54.29" arrival="232.00" arrivalLane="-10518543#3_0" arrivalPos="45.72" arrivalSpeed="33.80" duration="137.00" routeLength="3443.86" waitingTime="18.00" waitingCount="3" stopTime="0.00" timeLoss="71.11" rerouteNo="0" devices="tripinfo_316827.95" vType="DEFAULT_VEHTYPE" speedFactor="1.84" vaporized=""/>